 CRYSTAL
 PRIMVEC
     3.32949995    0.00000000    0.00000000
    -1.66474997    2.88343154    0.00000000
     0.00000000    0.00000000   19.97699968
 PRIMCOORD
   3 1
    23  -0.00000000    1.92228769    9.98849984
    34   1.66474997    0.96114385   11.56470960
    34   1.66474997    0.96114385    8.41229008
